<?xml version="1.0" encoding="UTF-8"?>

<!-- generated on 2023-02-14 22:27:20 by Eclipse SUMO GUI Version 1.15.0
<configuration xmlns:xsi="http://www.w3.org/2001/XMLSchema-instance" xsi:noNamespaceSchemaLocation="http://sumo.dlr.de/xsd/sumoConfiguration.xsd">

    <input>
        <net-file value="sumo/trento.net.xml"/>
        <route-files value="sumo/route/r0.xml,sumo/ route/r1.xml,sumo/ route/r2.xml,sumo/ route/r3.xml,sumo/ route/r4.xml,sumo/ route/r5.xml,sumo/ route/r6.xml"/>
        <additional-files value="sumo/map.poly.xml"/>
    </input>

    <output>
        <emission-output value="emissions.xml"/>
        <fcd-output value="fcd.xml"/>
    </output>

    <time>
        <begin value="0"/>
        <end value="900.0"/>
        <step-length value="1"/>
    </time>

    <traci_server>
        <remote-port value="61050"/>
    </traci_server>

    <gui_only>
        <quit-on-end value="true"/>
        <delay value="500"/>
    </gui_only>

</configuration>
-->

<emission-export xmlns:xsi="http://www.w3.org/2001/XMLSchema-instance" xsi:noNamespaceSchemaLocation="http://sumo.dlr.de/xsd/emission_file.xsd">
    <timestep time="0.00">
        <vehicle id="route0.0" eclass="HBEFA3/PC_G_EU4" CO2="2624.72" CO="164.78" HC="0.81" NOx="1.20" PMx="0.07" fuel="837.22" electricity="0.00" noise="55.94" route="!route0" type="type0" waiting="0.00" lane="483221881_0" pos="5.10" speed="0.00" angle="148.50" x="3420.98" y="16724.20"/>
        <vehicle id="route1.0" eclass="HBEFA3/PC_G_EU4" CO2="2624.72" CO="164.78" HC="0.81" NOx="1.20" PMx="0.07" fuel="837.22" electricity="0.00" noise="55.94" route="!route1" type="type1" waiting="0.00" lane="54202827_0" pos="5.10" speed="0.00" angle="164.37" x="3921.74" y="17169.51"/>
        <vehicle id="route2.0" eclass="HBEFA3/PC_G_EU4" CO2="2624.72" CO="164.78" HC="0.81" NOx="1.20" PMx="0.07" fuel="837.22" electricity="0.00" noise="55.94" route="!route2" type="type2" waiting="0.00" lane="75319181#5_0" pos="5.10" speed="0.00" angle="167.71" x="4527.68" y="17044.78"/>
        <vehicle id="route3.0" eclass="HBEFA3/PC_G_EU4" CO2="2624.72" CO="164.78" HC="0.81" NOx="1.20" PMx="0.07" fuel="837.22" electricity="0.00" noise="55.94" route="!route3" type="type3" waiting="0.00" lane="-250533487_0" pos="5.10" speed="0.00" angle="348.35" x="8022.71" y="13978.45"/>
        <vehicle id="route4.0" eclass="HBEFA3/PC_G_EU4" CO2="2624.72" CO="164.78" HC="0.81" NOx="1.20" PMx="0.07" fuel="837.22" electricity="0.00" noise="55.94" route="!route4" type="type4" waiting="0.00" lane="312760672#0_0" pos="5.10" speed="0.00" angle="133.12" x="5095.73" y="15208.73"/>
        <vehicle id="route5.0" eclass="HBEFA3/PC_G_EU4" CO2="2624.72" CO="164.78" HC="0.81" NOx="1.20" PMx="0.07" fuel="837.22" electricity="0.00" noise="55.94" route="!route5" type="type5" waiting="0.00" lane="775625754#0_0" pos="5.10" speed="0.00" angle="304.46" x="4123.93" y="14157.00"/>
        <vehicle id="route6.0" eclass="HBEFA3/PC_G_EU4" CO2="2624.72" CO="164.78" HC="0.81" NOx="1.20" PMx="0.07" fuel="837.22" electricity="0.00" noise="55.94" route="!route6" type="type6" waiting="0.00" lane="-24054398#2_0" pos="5.10" speed="0.00" angle="258.69" x="4209.73" y="12663.97"/>
    </timestep>
    <timestep time="1.00">
        <vehicle id="route0.0" eclass="HBEFA3/PC_G_EU4" CO2="3421.84" CO="147.81" HC="0.75" NOx="1.53" PMx="0.08" fuel="1091.45" electricity="0.00" noise="65.42" route="!route0" type="type0" waiting="0.00" lane="483221881_0" pos="7.08" speed="1.98" angle="148.50" x="3422.02" y="16722.51"/>
        <vehicle id="route1.0" eclass="HBEFA3/PC_G_EU4" CO2="3252.19" CO="147.41" HC="0.75" NOx="1.45" PMx="0.07" fuel="1037.34" electricity="0.00" noise="64.50" route="!route1" type="type1" waiting="0.00" lane="54202827_0" pos="6.89" speed="1.79" angle="164.37" x="3922.23" y="17167.79"/>
        <vehicle id="route2.0" eclass="HBEFA3/PC_G_EU4" CO2="3655.34" CO="148.89" HC="0.76" NOx="1.63" PMx="0.08" fuel="1165.92" electricity="0.00" noise="66.54" route="!route2" type="type2" waiting="0.00" lane="75319181#5_0" pos="7.32" speed="2.22" angle="167.71" x="4528.15" y="17042.61"/>
        <vehicle id="route3.0" eclass="HBEFA3/PC_G_EU4" CO2="3432.54" CO="147.84" HC="0.75" NOx="1.53" PMx="0.08" fuel="1094.86" electricity="0.00" noise="65.47" route="!route3" type="type3" waiting="0.00" lane="-250533487_0" pos="7.09" speed="1.99" angle="348.35" x="8022.31" y="13980.40"/>
        <vehicle id="route4.0" eclass="HBEFA3/PC_G_EU4" CO2="2919.85" CO="148.29" HC="0.74" NOx="1.31" PMx="0.07" fuel="931.35" electricity="0.00" noise="62.24" route="!route4" type="type4" waiting="0.00" lane="312760672#0_0" pos="6.42" speed="1.32" angle="133.12" x="5096.69" y="15207.83"/>
        <vehicle id="route5.0" eclass="HBEFA3/PC_G_EU4" CO2="3401.22" CO="147.74" HC="0.75" NOx="1.52" PMx="0.08" fuel="1084.87" electricity="0.00" noise="65.31" route="!route5" type="type5" waiting="0.00" lane="775625754#0_0" pos="7.06" speed="1.96" angle="304.46" x="4122.31" y="14158.10"/>
        <vehicle id="route6.0" eclass="HBEFA3/PC_G_EU4" CO2="3644.83" CO="148.83" HC="0.76" NOx="1.63" PMx="0.08" fuel="1162.57" electricity="0.00" noise="66.49" route="!route6" type="type6" waiting="0.00" lane="-24054398#2_0" pos="7.31" speed="2.21" angle="258.69" x="4207.57" y="12663.54"/>
    </timestep>
    <timestep time="2.00">
        <vehicle id="route0.0" eclass="HBEFA3/PC_G_EU4" CO2="4628.31" CO="139.33" HC="0.74" NOx="2.04" PMx="0.10" fuel="1476.24" electricity="0.00" noise="67.31" route="!route0" type="type0" waiting="0.00" lane="483221881_0" pos="11.27" speed="4.19" angle="148.50" x="3424.21" y="16718.94"/>
        <vehicle id="route1.0" eclass="HBEFA3/PC_G_EU4" CO2="4377.30" CO="138.34" HC="0.73" NOx="1.92" PMx="0.09" fuel="1396.18" electricity="0.00" noise="66.75" route="!route1" type="type1" waiting="0.00" lane="54202827_0" pos="10.78" speed="3.90" angle="164.37" x="3923.28" y="17164.03"/>
        <vehicle id="route2.0" eclass="HBEFA3/PC_G_EU4" CO2="5286.80" CO="145.33" HC="0.79" NOx="2.33" PMx="0.11" fuel="1686.26" electricity="0.00" noise="68.89" route="!route2" type="type2" waiting="0.00" lane="75319181#5_0" pos="12.05" speed="4.73" angle="169.61" x="4528.99" y="17037.96"/>
        <vehicle id="route3.0" eclass="HBEFA3/PC_G_EU4" CO2="4094.10" CO="133.29" HC="0.70" NOx="1.79" PMx="0.09" fuel="1305.86" electricity="0.00" noise="65.61" route="!route3" type="type3" waiting="0.00" lane=":2569653644_0_0" pos="1.12" speed="3.84" angle="349.32" x="8022.03" y="13981.97"/>
        <vehicle id="route4.0" eclass="HBEFA3/PC_G_EU4" CO2="3858.95" CO="137.92" HC="0.72" NOx="1.70" PMx="0.08" fuel="1230.86" electricity="0.00" noise="65.48" route="!route4" type="type4" waiting="0.00" lane="312760672#0_0" pos="9.62" speed="3.20" angle="141.31" x="5098.48" y="15205.20"/>
        <vehicle id="route5.0" eclass="HBEFA3/PC_G_EU4" CO2="5080.65" CO="145.05" HC="0.78" NOx="2.24" PMx="0.11" fuel="1620.51" electricity="0.00" noise="68.63" route="!route5" type="type5" waiting="0.00" lane="775625754#0_0" pos="11.50" speed="4.44" angle="304.46" x="4118.65" y="14160.62"/>
        <vehicle id="route6.0" eclass="HBEFA3/PC_G_EU4" CO2="4904.19" CO="140.52" HC="0.76" NOx="2.16" PMx="0.10" fuel="1564.23" electricity="0.00" noise="67.87" route="!route6" type="type6" waiting="0.00" lane="-24054398#2_0" pos="11.81" speed="4.51" angle="258.69" x="4203.15" y="12662.65"/>
    </timestep>
</emission-export>
